# vtk DataFile Version 2.0
Really cool data
ASCII
DATASET UNSTRUCTURED_GRID
POINTS 9121 float
5.1279031 0.1 0.63
-5.1279031 0.1 0.63
-5.1279031 -0.1 0.63
5.1279031 -0.1 0.63
5.1228069 0.3 0.63
-5.1228069 0.3 0.63
-5.1228069 -0.3 0.63
5.1228069 -0.3 0.63
5.1125119 0.5 0.63
-5.1125119 0.5 0.63
-5.1125119 -0.5 0.63
5.1125119 -0.5 0.63
5.0968099 0.7 0.63
-5.0968099 0.7 0.63
-5.0968099 -0.7 0.63
5.0968099 -0.7 0.63
5.0753797 0.9 0.63
-5.0753797 -0.9 0.63
5.0753797 -0.9 0.63
5.0388119 1.1164369 0.63923
-5.0388119 1.1164369 0.63923
-5.0388119 -1.1164369 0.63923
5.0388119 -1.1164369 0.63923
-4.9907945 -1.3 0.665189
4.9907945 -1.3 0.665189
5.0247563 1.3 0.615189
-5.0247563 -1.3 0.615189
5.0247563 -1.3 0.615189
4.9764428 1.5089241 0.628921
-4.9764428 1.5089241 0.628921
-4.9764428 -1.5089241 0.628921
4.9764428 -1.5089241 0.628921
5.0104454 1.4482069 0.594869
4.936103 1.7 0.63
-4.936103 1.7 0.63
-4.936103 -1.7 0.63
4.936103 -1.7 0.63
4.887525 1.9 0.63
-4.887525 1.9 0.63
-4.887525 -1.9 0.63
4.887525 -1.9 0.63
4.7892892 2.1608848 0.663559
-4.7892892 2.1608848 0.663559
4.7892892 -2.1608848 0.663559
4.8318427 2.0965309 0.630135
-4.8318427 -2.0965309 0.630135
4.8318427 -2.0965309 0.630135
4.769103 2.3017219 0.630135
-4.769103 2.3017219 0.630135
-4.769103 -2.3017219 0.630135
4.769103 -2.3017219 0.630135
4.8122959 2.2362032 0.596892
-4.8122959 2.2362032 0.596892
4.8122959 -2.2362032 0.596892
4.7033637 2.5 0.63
-4.7033637 2.5 0.63
4.7033637 -2.5 0.63
4.6320453 2.6952349 0.626471
-4.6320453 2.6952349 0.626471
-4.6320453 -2.6952349 0.626471
4.6320453 -2.6952349 0.626471
4.5528542 2.8911005 0.626471
-4.5528542 2.8911005 0.626471
-4.5528542 -2.8911005 0.626471
4.5528542 -2.8911005 0.626471
-4.6081397 2.8185008 0.590785
4.4519533 3.1081749 0.632543
-4.4519533 3.1081749 0.632543
-4.4519533 -3.1081749 0.632543
4.4519533 -3.1081749 0.632543
4.3590936 3.2990577 0.632543
-4.3590936 3.2990577 0.632543
-4.3590936 -3.2990577 0.632543
4.3590936 -3.2990577 0.632543
4.4164212 3.2317629 0.600905
-4.4164212 3.2317629 0.600905
4.4164212 -3.2317629 0.600905
-4.187016 3.5761325 0.662883
4.187016 -3.5761325 0.662883
4.2524175 3.5056795 0.62973
-4.2524175 3.5056795 0.62973
-4.2524175 -3.5056795 0.62973
4.2524175 -3.5056795 0.62973
4.144896 3.6932642 0.62973
-4.144896 3.6932642 0.62973
-4.144896 -3.6932642 0.62973
4.144896 -3.6932642 0.62973
4.2132592 -3.622107 0.596216
3.9755753 3.9621256 0.63
-3.9755753 3.9621256 0.63
3.9755753 -3.9621256 0.63
4.040858 3.8621256 0.63
-4.040858 -3.8621256 0.63
4.040858 -3.8621256 0.63
3.8713075 4.1107348 0.632142
-3.8713075 4.1107348 0.632142
-3.8713075 -4.1107348 0.632142
3.8713075 -4.1107348 0.632142
3.7358612 4.2943914 0.632142
-3.7358612 4.2943914 0.632142
-3.7358612 -4.2943914 0.632142
3.7358612 -4.2943914 0.632142
3.5442836 4.5341616 0.63
-3.5442836 4.5341616 0.63
-3.5442836 -4.5341616 0.63
3.5442836 -4.5341616 0.63
3.6281737 4.4341616 0.63
-3.6281737 4.4341616 0.63
3.6281737 -4.4341616 0.63
3.3518063 4.7490269 0.63
-3.3518063 -4.7490269 0.63
3.3518063 -4.7490269 0.63
3.4442836 4.6490269 0.63
-3.4442836 4.6490269 0.63
-3.4442836 -4.6490269 0.63
3.4442836 -4.6490269 0.63
3.1495118 4.9522923 0.63
-3.1495118 -4.9522923 0.63
3.1495118 -4.9522923 0.63
3.2518063 4.8522923 0.63
-3.2518063 4.8522923 0.63
-3.2518063 -4.8522923 0.63
3.2518063 -4.8522923 0.63
2.9352483 5.1454731 0.63
-2.9352483 5.1454731 0.63
-2.9352483 -5.1454731 0.63
2.9352483 -5.1454731 0.63
3.0495118 5.0454732 0.63
-3.0495118 5.0454732 0.63
-3.0495118 -5.0454732 0.63
3.0495118 -5.0454732 0.63
2.6952177 5.3364763 0.632139
-2.6952177 5.3364763 0.632139
-2.6952177 -5.3364763 0.632139
2.6952177 -5.3364763 0.632139
-2.8352483 -5.2293792 0.63
2.8352483 -5.2293792 0.63
2.3568442 5.5738576 0.63
-2.3568442 -5.5738576 0.63
2.3568442 -5.5738576 0.63
2.5098029 5.4705586 0.632139
-2.5098029 5.4705586 0.632139
-2.5098029 -5.4705586 0.632139
2.5098029 -5.4705586 0.632139
2.6253629 5.4191209 0.600231
-2.6253629 -5.4191209 0.600231
1.9574123 5.7797126 0.655389
-1.9574123 5.7797126 0.655389
1.9574123 -5.7797126 0.655389
2.0883014 5.7363757 0.625233
-2.0883014 5.7363757 0.625233
-2.0883014 -5.7363757 0.625233
2.0883014 -5.7363757 0.625233
2.2568442 5.6356852 0.63
-2.2568442 5.6356852 0.63
-2.2568442 -5.6356852 0.63
2.2568442 -5.6356852 0.63
1.5 5.9804558 0.655358
-1.5 5.9804558 0.655358
-1.5 -5.9804558 0.655358
1.6820751 5.9368402 0.62107
-1.6820751 5.9368402 0.62107
-1.6820751 -5.9368402 0.62107
1.6820751 -5.9368402 0.62107
1.8944474 5.8364857 0.625233
-1.8944474 5.8364857 0.625233
-1.8944474 -5.8364857 0.625233
1.8944474 -5.8364857 0.625233
-2.0138356 -5.8077243 0.588722
0.7 6.1890521 0.66571
-0.7 6.1890521 0.66571
-0.7 -6.1890521 0.66571
0.91643225 6.1756351 0.630128
-0.91643225 6.1756351 0.630128
-0.91643225 -6.1756351 0.630128
0.91643225 -6.1756351 0.630128
1.1 6.1317284 0.63
-1.1 6.1317284 0.63
-1.1 -6.1317284 0.63
1.1 -6.1317284 0.63
1.3179798 6.0587477 0.639216
-1.3179798 6.0587477 0.639216
-1.3179798 -6.0587477 0.639216
1.3179798 -6.0587477 0.639216
-1.5 6.0218501 0.605358
-1.5 -6.0218501 0.605358
1.5 -6.0218501 0.605358
0.1 6.2774942 0.63
-0.1 6.2774942 0.63
-0.1 -6.2774942 0.63
0.1 -6.2774942 0.63
0.3 6.2676385 0.63
-0.3 6.2676385 0.63
-0.3 -6.2676385 0.63
0.3 -6.2676385 0.63
0.50934002 6.239527 0.63844
-0.50934002 6.239527 0.63844
-0.50934002 -6.239527 0.63844
0.50934002 -6.239527 0.63844
0.7 6.2298739 0.61571
-0.7 6.2298739 0.61571
-0.7 -6.2298739 0.61571
0.7 -6.2298739 0.61571
0.86072042 6.2141057 0.59688
-0.86072042 -6.2141057 0.59688
4.9967039 0.1 0.776563
-4.9967039 0.1 0.776563
5.0482545 0.1 0.726563
-5.0482545 0.1 0.726563
-5.0482545 -0.1 0.726563
5.0482545 -0.1 0.726563
5.0456013 0.3 0.724017
-5.0456013 0.3 0.724017
-5.0456013 -0.3 0.724017
5.0456013 -0.3 0.724017
4.9893368 0.5 0.768868
-4.9893368 0.5 0.768868
4.9893368 -0.5 0.768868
5.0402417 0.5 0.718868
-5.0402417 0.5 0.718868
-5.0402417 -0.5 0.718868
5.0402417 -0.5 0.718868
4.9818225 0.7 0.761002
-4.9818225 -0.7 0.761002
4.9818225 -0.7 0.761002
5.0320674 0.7 0.711002
-5.0320674 0.7 0.711002
5.0320674 -0.7 0.711002
4.9715693 0.9 0.75024
-4.9715693 0.9 0.75024
-4.9715693 -0.9 0.75024
4.9715693 -0.9 0.75024
5.0209117 0.9 0.70024
-5.0209117 0.9 0.70024
-5.0209117 -0.9 0.70024
5.0209117 -0.9 0.70024
4.9662135 1.1164369 0.725644
-4.9662135 1.1164369 0.725644
-4.9662135 -1.1164369 0.725644
4.9662135 -1.1164369 0.725644
4.9327317 1.3 0.73
-4.9327317 1.3 0.73
-4.9327317 -1.3 0.73
4.9327317 -1.3 0.73
4.8950397 1.5 0.73
-4.8950397 1.5 0.73
-4.8950397 -1.5 0.73
4.8950397 -1.5 0.73
-4.7916762 1.7622338 0.771712
4.8458856 1.6973403 0.735027
-4.8458856 1.6973403 0.735027
-4.8458856 -1.6973403 0.735027
4.8458856 -1.6973403 0.735027
4.7747537 1.9 0.754793
-4.7747537 1.9 0.754793
-4.7747537 -1.9 0.754793
4.7747537 -1.9 0.754793
4.8265766 1.9 0.704793
-4.8265766 1.9 0.704793
-4.8265766 -1.9 0.704793
4.8265766 -1.9 0.704793
4.7511165 2.0965309 0.724808
-4.7511165 2.0965309 0.724808
-4.7511165 -2.0965309 0.724808
4.7511165 -2.0965309 0.724808
4.6673466 2.3161929 0.73886
-4.6673466 2.3161929 0.73886
-4.6673466 -2.3161929 0.73886
4.6673466 -2.3161929 0.73886
4.5796201 2.5 0.760622
-4.5796201 2.5 0.760622
-4.5796201 -2.5 0.760622
4.5796201 -2.5 0.760622
4.6341083 2.5 0.710622
-4.6341083 2.5 0.710622
-4.6341083 -2.5 0.710622
4.6341083 -2.5 0.710622
4.544203 2.6952349 0.725637
-4.544203 2.6952349 0.725637
-4.544203 -2.6952349 0.725637
4.544203 -2.6952349 0.725637
4.6104321 2.6253915 0.689395
-4.6104321 2.6253915 0.689395
4.3849659 2.9645068 0.766441
-4.3849659 -2.9645068 0.766441
4.4530281 2.8987041 0.731865
-4.4530281 2.8987041 0.731865
-4.4530281 -2.8987041 0.731865
4.4530281 -2.8987041 0.731865
4.3574492 3.1081749 0.731865
-4.3574492 3.1081749 0.731865
-4.3574492 -3.1081749 0.731865
4.3574492 -3.1081749 0.731865
4.422875 3.0469581 0.699774
-4.422875 -3.0469581 0.699774
4.1846491 3.3699895 0.766874
-4.1846491 3.3699895 0.766874
4.1846491 -3.3699895 0.766874
4.2610838 3.3019937 0.732124
-4.2610838 3.3019937 0.732124
-4.2610838 -3.3019937 0.732124
4.2610838 -3.3019937 0.732124
4.15089 3.5056795 0.732124
-4.15089 3.5056795 0.732124
-4.15089 -3.5056795 0.732124
4.15089 -3.5056795 0.732124
-4.224357 3.4427991 0.700207
-4.224357 -3.4427991 0.700207
4.224357 -3.4427991 0.700207
3.9721474 3.754347 0.757425
-3.9721474 3.754347 0.757425
3.9721474 -3.754347 0.757425
4.0482111 3.6926082 0.726455
-4.0482111 3.6926082 0.726455
-4.0482111 -3.6926082 0.726455
4.0482111 -3.6926082 0.726455
3.9045387 3.9051529 0.73271
-3.9045387 3.9051529 0.73271
-3.9045387 -3.9051529 0.73271
3.9045386 -3.9051529 0.73271
4.0135175 3.8205559 0.690759
-4.0135175 3.8205559 0.690759
-4.0135175 -3.8205559 0.690759
3.755464 4.1107348 0.736797
-3.755464 4.1107348 0.736797
-3.755464 -4.1107348 0.736797
3.755464 -4.1107348 0.736797
3.8369299 4.0512247 0.707995
-3.8369299 4.0512247 0.707995
-3.8369299 -4.0512247 0.707995
3.8369299 -4.0512247 0.707995
-3.5570362 4.3467105 0.749037
-3.5570362 -4.3467105 0.749037
3.5570362 -4.3467105 0.749037
3.6416278 4.2880263 0.721422
-3.6416278 4.2880263 0.721422
-3.6416278 -4.2880263 0.721422
3.6416278 -4.2880263 0.721422
3.3644879 4.5606497 0.756034
-3.3644879 4.5606497 0.756034
-3.3644879 -4.5606497 0.756034
3.3644879 -4.5606497 0.756034
3.4853179 4.4823051 0.719202
-3.4853179 4.4823051 0.719202
-3.4853179 -4.4823051 0.719202
3.4853179 -4.4823051 0.719202
-3.1656018 -4.766006 0.758321
3.1656018 -4.766006 0.758321
3.291179 4.6905313 0.723844
-3.291179 4.6905313 0.723844
-3.291179 -4.6905313 0.723844
3.291179 -4.6905313 0.723844
2.9591394 4.9640711 0.756027
-2.9591394 4.9640711 0.756027
-2.9591394 -4.9640711 0.756027
2.9591394 -4.9640711 0.756027
3.0904025 4.8910544 0.72384
-3.0904025 4.8910544 0.72384
-3.0904025 -4.8910544 0.72384
3.0904025 -4.8910544 0.72384
-3.2178702 4.8180376 0.691654
-3.2178702 -4.8180376 0.691654
2.7430803 5.1556055 0.74903
-2.7430803 5.1556055 0.74903
-2.7430803 -5.1556055 0.74903
2.7430803 -5.1556055 0.74903
2.8816098 5.084784 0.719195
-2.8816098 5.084784 0.719195
-2.8816098 -5.084784 0.719195
[...]
POINT_DATA 9121
SCALARS dn float 1
LOOKUP_TABLE default
1.0000956 6.0005739 3.0002869 4.0003826 2.0001913 4.0003826 3.0002869 2.0001913 2.0001913 2.0001913 1.0000956 5.0004782 2.0001913 2.0001913 3.0002869 5.0004782 2.0001913 5.0004782 7.0006695 3.0002869 3.0002869 1.0000956 3.0002869 1.0000956 2.0001913 5.0004782 1.0000956 8.0007652 4.0003826 1.0000956 2.0001913 4.0003826 1.0000956 2.0001913 8.0007652 2.0001913 1.0000956 1.0000956 1.0000956 2.0001913 1.0000956 1.0000956 1.0000956 1.0000956 2.0001913 1.0000956 1.0000956 2.0001913 3.0002869 2.0001913 7.0006695 1.0000956 1.0000956 1.0000956 2.0001913 4.0003826 4.0003826 2.0001913 1.0000956 3.0002869 5.0004782 7.0006695 6.0005739 2.0001913 5.0004782 1.0000956 1.0000956 5.0004782 4.0003826 4.0003826 3.0002869 2.0001913 2.0001913 3.0002869 1.0000956 1.0000956 1.0000956 1.0000956 2.0001913 5.0004782 4.0003826 3.0002869 5.0004782 4.0003826 6.0005739 1.0000956 3.0002869 1.0000956 1.0000956 1.0000956 1.0000956 2.0001913 4.0003826 1.0000956 7.0006695 4.0003826 3.0002869 2.0001913 4.0003826 3.0002869 3.0002869 1.0000956 3.0002869 5.0004782 3.0002869 2.0001913 1.0000956 1.0000956 2.0001913 3.0002869 3.0002869 4.0003826 2.0001913 3.0002869 1.0000956 6.0005739 2.0001913 3.0002869 2.0001913 4.0003826 1.0000956 3.0002869 4.0003826 4.0003826 2.0001913 1.0000956 3.0002869 3.0002869 1.0000956 1.0000956 5.0004782 7.0006695 2.0001913 8.0007652 6.0005739 1.0000956 2.0001913 1.0000956 2.0001913 2.0001913 4.0003826 5.0004782 3.0002869 5.0004782 1.0000956 4.0003826 1.0000956 1.0000956 1.0000956 5.0004782 4.0003826 2.0001913 3.0002869 3.0002869 3.0002869 1.0000956 3.0002869 3.0002869 1.0000956 1.0000956 3.0002869 4.0003826 1.0000956 4.0003826 1.0000956 3.0002869 3.0002869 3.0002869 1.0000956 3.0002869 1.0000956 2.0001913 2.0001913 5.0004782 3.0002869 1.0000956 3.0002869 4.0003826 4.0003826 8.0007652 6.0005739 2.0001913 1.0000956 3.0002869 1.0000956 2.0001913 4.0003826 2.0001913 3.0002869 5.0004782 1.0000956 3.0002869 4.0003826 3.0002869 1.0000956 2.0001913 6.0005739 8.0007652 3.0002869 2.0001913 3.0002869 6.0005739 2.0001913 1.0000956 1.0000956 1.0000956 1.0000956 5.0004782 4.0003826 5.0004782 6.0005739 8.0007652 2.0001913 6.0005739 3.0002869 1.0000956 2.0001913 1.0000956 6.0005739 6.0005739 1.0000956 4.0003826 2.0001913 5.0004782 3.0002869 3.0002869 6.0005739 2.0001913 3.0002869 2.0001913 4.0003826 10.000956 1.0000956 4.0003826 1.0000956 2.0001913 2.0001913 7.0006695 7.0006695 6.0005739 8.0007652 6.0005739 7.0006695 8.0007652 3.0002869 4.0003826 5.0004782 7.0006695 1.0000956 8.0007652 8.0007652 10.000956 5.0004782 2.0001913 6.0005739 6.0005739 3.0002869 3.0002869 6.0005739 3.0002869 1.0000956 5.0004782 4.0003826 4.0003826 6.0005739 8.0007652 8.0007652 5.0004782 2.0001913 3.0002869 2.0001913 1.0000956 3.0002869 3.0002869 4.0003826 4.0003826 3.0002869 5.0004782 7.0006695 3.0002869 10.000956 1.0000956 1.0000956 2.0001913 1.0000956 5.0004782 5.0004782 5.0004782 4.0003826 6.0005739 7.0006695 5.0004782 2.0001913 1.0000956 1.0000956 2.0001913 1.0000956 1.0000956 6.0005739 5.0004782 2.0001913 5.0004782 5.0004782 4.0003826 5.0004782 9.0008608 2.0001913 1.0000956 2.0001913 1.0000956 1.0000956 1.0000956 7.0006695 9.0008608 9.0008608 9.0008608 9.0008608 9.0008608 7.0006695 7.0006695 1.0000956 3.0002869 1.0000956 7.0006695 5.0004782 2.0001913 7.0006695 3.0002869 4.0003826 2.0001913 2.0001913 4.0003826 2.0001913 3.0002869 6.0005739 6.0005739 4.0003826 4.0003826 2.0001913 4.0003826 3.0002869 2.0001913 6.0005739 3.0002869 11.001052 6.0005739 3.0002869 3.0002869 5.0004782 12.001148 5.0004782 4.0003826 1.0000956 3.0002869 2.0001913 1.0000956 11.001052 11.001052 7.0006695 5.0004782 1.0000956 1.0000956 1.0000956 3.0002869 4.0003826 4.0003826 5.0004782 8.0007652 8.0007652 10.000956 1.0000956 1.0000956 1.0000956 4.0003826 4.0003826 4.0003826 10.000956 6.0005739 7.0006695 4.0003826 8.0007652 2.0001913 3.0002869 3.0002869 2.0001913 6.0005739 9.0008608 7.0006695 7.0006695 4.0003826 2.0001913 4.0003826 2.0001913 5.0004782 2.0001913 1.0000956 11.001052 10.000956 5.0004782 13.001243 3.0002869 4.0003826 4.0003826 4.0003826 1.0000956 1.0000956 3.0002869 2.0001913 2.0001913 6.0005739 3.0002869 4.0003826 9.0008608 11.001052 9.0008608 8.0007652 6.0005739 8.0007652 3.0002869 4.0003826 6.0005739 3.0002869 1.0000956 7.0006695 6.0005739 9.0008608 3.0002869 10.000956 9.0008608 2.0001913 7.0006695 6.0005739 6.0005739 7.0006695 7.0006695 7.0006695 7.0006695 8.0007652 3.0002869 5.0004782 9.0008608 4.0003826 7.0006695 6.0005739 8.0007652 2.0001913 4.0003826 1.0000956 3.0002869 3.0002869 4.0003826 4.0003826 4.0003826 2.0001913 1.0000956 2.0001913 2.0001913 7.0006695 9.0008608 2.0001913 8.0007652 5.0004782 7.0006695 8.0007652 12.001148 5.0004782 4.0003826 5.0004782 4.0003826 7.0006695 11.001052 3.0002869 10.000956 4.0003826 6.0005739 3.0002869 3.0002869 3.0002869 3.0002869 10.000956 3.0002869 2.0001913 2.0001913 6.0005739 9.0008608 6.0005739 7.0006695 2.0001913 1.0000956 3.0002869 3.0002869 2.0001913 5.0004782 7.0006695 6.0005739 6.0005739 1.0000956 8.0007652 1.0000956 5.0004782 9.0008608 1.0000956 2.0001913 3.0002869 5.0004782 6.0005739 2.0001913 4.0003826 5.0004782 2.0001913 6.0005739 2.0001913 2.0001913 2.0001913 2.0001913 10.000956 7.0006695 9.0008608 3.0002869 3.0002869 3.0002869 2.0001913 3.0002869 3.0002869 3.0002869 3.0002869 8.0007652 3.0002869 9.0008608 5.0004782 9.0008608 1.0000956 1.0000956 3.0002869 1.0000956 1.0000956 3.0002869 8.0007652 6.0005739 6.0005739 5.0004782 8.0007652 6.0005739 7.0006695 1.0000956 1.0000956 2.0001913 2.0001913 3.0002869 1.0000956 4.0003826 10.000956 7.0006695 5.0004782 10.000956 6.0005739 5.0004782 5.0004782 5.0004782 3.0002869 6.0005739 6.0005739 2.0001913 2.0001913 6.0005739 3.0002869 3.0002869 4.0003826 3.0002869 11.001052 8.0007652 6.0005739 15.001435 1.0000956 1.0000956 7.0006695 5.0004782 10.000956 10.000956 2.0001913 1.0000956 10.000956 6.0005739 8.0007652 8.0007652 8.0007652 6.0005739 9.0008608 6.0005739 3.0002869 2.0001913 2.0001913 1.0000956 7.0006695 7.0006695 12.001148 7.0006695 2.0001913 1.0000956 1.0000956 3.0002869 3.0002869 2.0001913 1.0000956 10.000956 7.0006695 10.000956 5.0004782 1.0000956 1.0000956 6.0005739 8.0007652 7.0006695 8.0007652 6.0005739 8.0007652 7.0006695 8.0007652 6.0005739 2.0001913 2.0001913 2.0001913 7.0006695 8.0007652 14.001339 11.001052 1.0000956 4.0003826 1.0000956 1.0000956 1.0000956 2.0001913 4.0003826 5.0004782 4.0003826 5.0004782 9.0008608 6.0005739 7.0006695 11.001052 4.0003826 3.0002869 9.0008608 2.0001913 2.0001913 1.0000956 3.0002869 5.0004782 1.0000956 1.0000956 3.0002869 5.0004782 9.0008608 8.0007652 7.0006695 11.001052 6.0005739 2.0001913 9.0008608 9.0008608 11.001052 6.0005739 7.0006695 5.0004782 3.0002869 3.0002869 1.0000956 2.0001913 5.0004782 6.0005739 9.0008608 10.000956 5.0004782 6.0005739 5.0004782 9.0008608 7.0006695 4.0003826 6.0005739 5.0004782 3.0002869 1.0000956 3.0002869 1.0000956 1.0000956 1.0000956 5.0004782 11.001052 3.0002869 5.0004782 8.0007652 7.0006695 6.0005739 8.0007652 4.0003826 1.0000956 10.000956 10.000956 1.0000956 1.0000956 1.0000956 1.0000956 9.0008608 7.0006695 8.0007652 7.0006695 9.0008608 2.0001913 3.0002869 3.0002869 3.0002869 4.0003826 3.0002869 4.0003826 5.0004782 7.0006695 8.0007652 8.0007652 3.0002869 1.0000956 8.0007652 6.0005739 2.0001913 3.0002869 11.001052 5.0004782 5.0004782 10.000956 11.001052 4.0003826 3.0002869 3.0002869 4.0003826 2.0001913 4.0003826 3.0002869 4.0003826 2.0001913 3.0002869 7.0006695 5.0004782 9.0008608 6.0005739 10.000956 2.0001913 10.000956 7.0006695 8.0007652 10.000956 4.0003826 5.0004782 3.0002869 3.0002869 3.0002869 7.0006695 8.0007652 4.0003826 5.0004782 6.0005739 6.0005739 8.0007652 2.0001913 9.0008608 10.000956 10.000956 5.0004782 7.0006695 7.0006695 5.0004782 5.0004782 3.0002869 1.0000956 1.0000956 1.0000956 5.0004782 8.0007652 8.0007652 6.0005739 6.0005739 11.001052 12.001148 13.001243 3.0002869 6.0005739 4.0003826 4.0003826 4.0003826 4.0003826 1.0000956 4.0003826 2.0001913 1.0000956 2.0001913 1.0000956 7.0006695 9.0008608 10.000956 8.0007652 10.000956 6.0005739 8.0007652 8.0007652 6.0005739 9.0008608 5.0004782 5.0004782 3.0002869 2.0001913 2.0001913 5.0004782 7.0006695 4.0003826 7.0006695 3.0002869 5.0004782 4.0003826 1.0000956 4.0003826 7.0006695 7.0006695 8.0007652 7.0006695 4.0003826 4.0003826 2.0001913 8.0007652 2.0001913 1.0000956 10.000956 7.0006695 12.001148 4.0003826 2.0001913 5.0004782 5.0004782 1.0000956 1.0000956 5.0004782 1.0000956 12.001148 5.0004782 9.0008608 6.0005739 3.0002869 1.0000956 2.0001913 2.0001913 1.0000956 4.0003826 3.0002869 3.0002869 2.0001913 6.0005739 6.0005739 5.0004782 12.001148 1.0000956 1.0000956 8.0007652 6.0005739 6.0005739 4.0003826 14.001339 10.000956 5.0004782 12.001148 2.0001913 2.0001913 3.0002869 3.0002869 1.0000956 1.0000956 4.0003826 2.0001913 4.0003826 4.0003826 9.0008608 11.001052 5.0004782 4.0003826 8.0007652 11.001052 9.0008608 11.001052 4.0003826 1.0000956 4.0003826 1.0000956 7.0006695 6.0005739 10.000956 4.0003826 10.000956 7.0006695 10.000956 12.001148 9.0008608 8.0007652 5.0004782 9.0008608 4.0003826 5.0004782 7.0006695 3.0002869 7.0006695 8.0007652 7.0006695 9.0008608 4.0003826 4.0003826 6.0005739 6.0005739 5.0004782 4.0003826 6.0005739 3.0002869 3.0002869 2.0001913 1.0000956 3.0002869 6.0005739 3.0002869 5.0004782 2.0001913 1.0000956 2.0001913 3.0002869 6.0005739 7.0006695 5.0004782 5.0004782 5.0004782 10.000956 4.0003826 7.0006695 6.0005739 11.001052 6.0005739 10.000956 8.0007652 7.0006695 9.0008608 6.0005739 7.0006695 6.0005739 6.0005739 1.0000956 1.0000956 6.0005739 6.0005739 4.0003826 10.000956 6.0005739 2.0001913 3.0002869 9.0008608 3.0002869 4.0003826 1.0000956 7.0006695 12.001148 10.000956 6.0005739 6.0005739 8.0007652 3.0002869 10.000956 5.0004782 3.0002869 2.0001913 6.0005739 6.0005739 3.0002869 2.0001913 6.0005739 6.0005739 10.000956 7.0006695 7.0006695 2.0001913 1.0000956 2.0001913 10.000956 8.0007652 5.0004782 7.0006695 12.001148 10.000956 3.0002869 5.0004782 2.0001913 1.0000956 1.0000956 8.0007652 7.0006695 4.0003826 6.0005739 3.0002869 7.0006695 7.0006695 6.0005739 1.0000956 6.0005739 2.0001913 1.0000956 9.0008608 6.0005739 6.0005739 7.0006695 6.0005739 7.0006695 9.0008608 7.0006695 7.0006695 9.0008608 7.0006695 7.0006695 2.0001913 2.0001913 2.0001913 2.0001913 4.0003826 4.0003826 2.0001913 5.0004782 4.0003826 3.0002869 6.0005739 3.0002869 2.0001913 2.0001913 3.0002869 4.0003826 8.0007652 3.0002869 4.0003826 4.0003826 1.0000956 12.001148 4.0003826 9.0008608 5.0004782 1.0000956 4.0003826 2.0001913 4.0003826 9.0008608 11.001052 4.0003826 4.0003826 8.0007652 6.0005739 9.0008608 4.0003826 4.0003826 5.0004782 6.0005739 9.0008608 1.0000956 1.0000956 11.001052 8.0007652 8.0007652 7.0006695 5.0004782 5.0004782 4.0003826 1.0000956 1.0000956 5.0004782 7.0006695 6.0005739 7.0006695 10.000956 12.001148 5.0004782 12.001148 1.0000956 2.0001913 1.0000956 3.0002869 8.0007652 5.0004782 8.0007652 3.0002869 9.0008608 6.0005739 5.0004782 11.001052 5.0004782 4.0003826 4.0003826 2.0001913 3.0002869 1.0000956 1.0000956 3.0002869 2.0001913 5.0004782 5.0004782 5.0004782 5.0004782 4.0003826 8.0007652 12.001148 11.001052 4.0003826 7.0006695 7.0006695 9.0008608 10.000956 8.0007652 16.00153 9.0008608 8.0007652 1.0000956 1.0000956 2.0001913 9.0008608 16.00153 7.0006695 5.0004782 3.0002869 2.0001913 10.000956 8.0007652 9.0008608 6.0005739 4.0003826 4.0003826 2.0001913 2.0001913 7.0006695 3.0002869 1.0000956 10.000956 5.0004782 6.0005739 7.0006695 5.0004782 14.001339 5.0004782 7.0006695 3.0002869 7.0006695 6.0005739 8.0007652 10.000956 11.001052 8.0007652 7.0006695 8.0007652 4.0003826 11.001052 3.0002869 2.0001913 1.0000956 5.0004782 1.0000956 10.000956 3.0002869 10.000956 4.0003826 2.0001913 9.0008608 9.0008608 6.0005739 3.0002869 2.0001913 5.0004782 2.0001913 10.000956 6.0005739 9.0008608 15.001435 10.000956 10.000956 6.0005739 10.000956 1.0000956 1.0000956 2.0001913 13.001243 7.0006695 7.0006695 4.0003826 10.000956 6.0005739 4.0003826 4.0003826 4.0003826 4.0003826 2.0001913 8.0007652 2.0001913 10.000956 12.001148 1.0000956 1.0000956 1.0000956 8.0007652 3.0002869 6.0005739 8.0007652 5.0004782 1.0000956 4.0003826 5.0004782 2.0001913 1.0000956 1.0000956 1.0000956 8.0007652 4.0003826 9.0008608 11.001052 6.0005739 7.0006695 7.0006695 10.000956 1.0000956 2.0001913 3.0002869 1.0000956 3.0002869 7.0006695 7.0006695 7.0006695 9.0008608 9.0008608 10.000956 10.000956 1.0000956 1.0000956 1.0000956 2.0001913 6.0005739 4.0003826 6.0005739 6.0005739 2.0001913 3.0002869 6.0005739 5.0004782 1.0000956 1.0000956 10.000956 14.001339 12.001148 5.0004782 1.0000956 7.0006695 11.001052 12.001148 9.0008608 4.0003826 1.0000956 1.0000956 2.0001913 5.0004782 5.0004782 12.001148 5.0004782 1.0000956 1.0000956 2.0001913 2.0001913 1.0000956 8.0007652 7.0006695 13.001243 12.001148 3.0002869 2.0001913 2.0001913 3.0002869 2.0001913 1.0000956 11.001052 16.00153 6.0005739 12.001148 1.0000956 2.0001913 1.0000956 1.0000956 2.0001913 6.0005739 1.0000956 12.001148 16.00153 8.0007652 4.0003826 1.0000956 3.0002869 1.0000956 9.0008608 3.0002869 13.001243 4.0003826 7.0006695 6.0005739 6.0005739 5.0004782 7.0006695 9.0008608 6.0005739 7.0006695 4.0003826 8.0007652 10.000956 7.0006695 3.0002869 2.0001913 1.0000956 1.0000956 7.0006695 2.0001913 7.0006695 3.0002869 8.0007652 4.0003826 6.0005739 6.0005739 13.001243 13.001243 7.0006695 9.0008608 1.0000956 3.0002869 9.0008608 14.001339 8.0007652 6.0005739 7.0006695 7.0006695 10.000956 8.0007652 15.001435 9.0008608 10.000956 7.0006695 6.0005739 8.0007652 18.001722 5.0004782 6.0005739 7.0006695 5.0004782 6.0005739 4.0003826 1.0000956 2.0001913 4.0003826 1.0000956 1.0000956 1.0000956 1.0000956 6.0005739 7.0006695 2.0001913 7.0006695 1.0000956 1.0000956 4.0003826 6.0005739 3.0002869 3.0002869 4.0003826 8.0007652 7.0006695 7.0006695 6.0005739 6.0005739 4.0003826 3.0002869 5.0004782 1.0000956 6.0005739 6.0005739 5.0004782 1.0000956 6.0005739 6.0005739 2.0001913 1.0000956 1.0000956 1.0000956 2.0001913 5.0004782 10.000956 5.0004782 9.0008608 5.0004782 8.0007652 4.0003826 4.0003826 9.0008608 6.0005739 8.0007652 6.0005739 3.0002869 3.0002869 3.0002869 1.0000956 2.0001913 4.0003826 6.0005739 9.0008608 4.0003826 9.0008608 7.0006695 4.0003826 1.0000956 5.0004782 5.0004782 15.001435 6.0005739 1.0000956 2.0001913 8.0007652 8.0007652 9.0008608 11.001052 6.0005739 8.0007652 8.0007652 6.0005739 1.0000956 1.0000956 15.001435 7.0006695 11.001052 11.001052 6.0005739 8.0007652 6.0005739 3.0002869 3.0002869 3.0002869 2.0001913 4.0003826 12.001148 10.000956 9.0008608 11.001052 5.0004782 6.0005739 4.0003826 9.0008608 1.0000956 3.0002869 3.0002869 5.0004782 2.0001913 2.0001913 3.0002869 1.0000956 5.0004782 5.0004782 12.001148 4.0003826 10.000956 7.0006695 8.0007652 7.0006695 1.0000956 1.0000956 5.0004782 8.0007652 5.0004782 10.000956 4.0003826 2.0001913 5.0004782 2.0001913 7.0006695 4.0003826 2.0001913 6.0005739 4.0003826 2.0001913 3.0002869 6.0005739 3.0002869 3.0002869 5.0004782 1.0000956 3.0002869 8.0007652 3.0002869 4.0003826 4.0003826 8.0007652 5.0004782 6.0005739 9.0008608 8.0007652 8.0007652 3.0002869 7.0006695 7.0006695 8.0007652 8.0007652 9.0008608 7.0006695 8.0007652 4.0003826 1.0000956 2.0001913 1.0000956 3.0002869 11.001052 4.0003826 15.001435 8.0007652 1.0000956 4.0003826 2.0001913 4.0003826 5.0004782 11.001052 9.0008608 6.0005739 6.0005739 14.001339 9.0008608 11.001052 1.0000956 1.0000956 1.0000956 2.0001913 2.0001913 9.0008608 7.0006695 10.000956 5.0004782 6.0005739 9.0008608 13.001243 15.001435 3.0002869 8.0007652 2.0001913 2.0001913 3.0002869 3.0002869 4.0003826 4.0003826 3.0002869 6.0005739 5.0004782 10.000956 7.0006695 6.0005739 7.0006695 10.000956 14.001339 5.0004782 4.0003826 6.0005739 12.001148 9.0008608 2.0001913 5.0004782 2.0001913 11.001052 8.0007652 5.0004782 13.001243 12.001148 9.0008608 10.000956 8.0007652 13.001243 8.0007652 3.0002869 8.0007652 3.0002869 7.0006695 6.0005739 8.0007652 1.0000956 1.0000956 2.0001913 9.0008608 7.0006695 6.0005739 1.0000956 5.0004782 4.0003826 10.000956 12.001148 7.0006695 8.0007652 11.001052 10.000956 5.0004782 6.0005739 9.0008608 16.00153 5.0004782 6.0005739 5.0004782 5.0004782 8.0007652 8.0007652 4.0003826 9.0008608 7.0006695 7.0006695 8.0007652 9.0008608 4.0003826 1.0000956 1.0000956 1.0000956 4.0003826 4.0003826 2.0001913 3.0002869 9.0008608 13.001243 8.0007652 11.001052 1.0000956 1.0000956 11.001052 14.001339 5.0004782 6.0005739 1.0000956 1.0000956 1.0000956 2.0001913 7.0006695 4.0003826 5.0004782 7.0006695 12.001148 6.0005739 11.001052 4.0003826 1.0000956 1.0000956 3.0002869 1.0000956 13.001243 7.0006695 7.0006695 5.0004782 8.0007652 7.0006695 4.0003826 4.0003826 5.0004782 4.0003826 3.0002869 4.0003826 13.001243 11.001052 4.0003826 8.0007652 5.0004782 4.0003826 2.0001913 3.0002869 2.0001913 3.0002869 5.0004782 10.000956 10.000956 10.000956 11.001052 10.000956 5.0004782 9.0008608 9.0008608 9.0008608 3.0002869 2.0001913 4.0003826 3.0002869 3.0002869 3.0002869 6.0005739 3.0002869 4.0003826 6.0005739 7.0006695 6.0005739 2.0001913 2.0001913 4.0003826 7.0006695 16.00153 7.0006695 9.0008608 11.001052 9.0008608 15.001435 2.0001913 1.0000956 6.0005739 10.000956 9.0008608 8.0007652 1.0000956 3.0002869 2.0001913 1.0000956 1.0000956 2.0001913 11.001052 16.00153 11.001052 11.001052 1.0000956 2.0001913 4.0003826 1.0000956 15.001435 13.001243 5.0004782 8.0007652 3.0002869 2.0001913 8.0007652 8.0007652 7.0006695 8.0007652 7.0006695 7.0006695 7.0006695 8.0007652 5.0004782 7.0006695 4.0003826 3.0002869 4.0003826 8.0007652 9.0008608 9.0008608 2.0001913 1.0000956 2.0001913 1.0000956 4.0003826 6.0005739 10.000956 10.000956 8.0007652 7.0006695 13.001243 16.00153 6.0005739 7.0006695 3.0002869 3.0002869 4.0003826 4.0003826 8.0007652 6.0005739 2.0001913 4.0003826 6.0005739 8.0007652 3.0002869 10.000956 14.001339 7.0006695 7.0006695 4.0003826 9.0008608 6.0005739 11.001052 7.0006695 9.0008608 10.000956 11.001052 6.0005739 4.0003826 8.0007652 7.0006695 6.0005739 1.0000956 1.0000956 3.0002869 2.0001913 1.0000956 1.0000956 1.0000956 1.0000956 18.001722 11.001052 12.001148 5.0004782 9.0008608 9.0008608 12.001148 8.0007652 9.0008608 5.0004782 7.0006695 7.0006695 10.000956 5.0004782 7.0006695 9.0008608 6.0005739 10.000956 16.00153 16.00153 1.0000956 3.0002869 2.0001913 2.0001913 8.0007652 9.0008608 4.0003826 7.0006695 5.0004782 11.001052 6.0005739 7.0006695 3.0002869 3.0002869 1.0000956 4.0003826 9.0008608 8.0007652 5.0004782 6.0005739 7.0006695 17.001626 5.0004782 1.0000956 8.0007652 8.0007652 5.0004782 5.0004782 8.0007652 3.0002869 10.000956 8.0007652 1.0000956 1.0000956 2.0001913 8.0007652 6.0005739 9.0008608 13.001243 1.0000956 4.0003826 1.0000956 2.0001913 6.0005739 4.0003826 6.0005739 9.0008608 13.001243 12.001148 12.001148 9.0008608 3.0002869 2.0001913 4.0003826 1.0000956 7.0006695 13.001243 12.001148 11.001052 8.0007652 13.001243 7.0006695 14.001339 2.0001913 3.0002869 5.0004782 1.0000956 4.0003826 10.000956 4.0003826 6.0005739 1.0000956 5.0004782 8.0007652 13.001243 8.0007652 5.0004782 8.0007652 11.001052 6.0005739 3.0002869 1.0000956 1.0000956 1.0000956 14.001339 10.000956 6.0005739 7.0006695 6.0005739 6.0005739 1.0000956 4.0003826 5.0004782 7.0006695 1.0000956 4.0003826 6.0005739 7.0006695 7.0006695 3.0002869 8.0007652 10.000956 5.0004782 3.0002869 7.0006695 5.0004782 9.0008608 6.0005739 11.001052 5.0004782 11.001052 5.0004782 8.0007652 9.0008608 9.0008608 2.0001913 1.0000956 1.0000956 6.0005739 4.0003826 14.001339 7.0006695 4.0003826 3.0002869 5.0004782 7.0006695 4.0003826 9.0008608 3.0002869 8.0007652 10.000956 17.001626 10.000956 13.001243 2.0001913 1.0000956 9.0008608 8.0007652 6.0005739 9.0008608 10.000956 11.001052 12.001148 16.00153 6.0005739 3.0002869 4.0003826 3.0002869 1.0000956 1.0000956 2.0001913 7.0006695 7.0006695 8.0007652 3.0002869 10.000956 5.0004782 8.0007652 10.000956 8.0007652 7.0006695 13.001243 7.0006695 2.0001913 5.0004782 4.0003826 3.0002869 7.0006695 9.0008608 7.0006695 9.0008608 9.0008608 9.0008608 9.0008608 8.0007652 16.00153 11.001052 6.0005739 11.001052 14.001339 9.0008608 6.0005739 14.001